TITLE = "Output for Element 52  "  
VARIABLES = "X","Y","U1", "V1", "V2", "V", "Phi", "q", "S6", "S7", "S8", "S9", "S10"
ZONE N=  760, E= 1412, F=FEPOINT, ET=TRIANGLE
  0.1000E+01  0.0000E+00  0.2492E+01  0.1159E+00 -0.1011E+00  0.1538E+00  0.2493E+01  0.0000E+00  0.0000E+00  0.0000E+00  0.0000E+00  0.0000E+00  0.0000E+00
  0.3500E+01  0.0000E+00  0.4501E+01  0.9977E+00 -0.2261E-02  0.9977E+00  0.4467E+01  0.0000E+00  0.0000E+00  0.0000E+00  0.0000E+00  0.0000E+00  0.0000E+00
  0.3500E+01  0.2000E+01  0.4469E+01  0.1002E+01 -0.2186E-02  0.1002E+01  0.4436E+01  0.0000E+00  0.0000E+00  0.0000E+00  0.0000E+00  0.0000E+00  0.0000E+00
  0.0000E+00  0.2000E+01  0.0000E+00  0.1776E+01  0.0000E+00  0.1776E+01  0.5919E-01  0.0000E+00  0.0000E+00  0.0000E+00  0.0000E+00  0.0000E+00  0.0000E+00
  0.0000E+00  0.1000E+01  0.0000E+00  0.2560E+01  0.0000E+00  0.2560E+01  0.8363E-01  0.0000E+00  0.0000E+00  0.0000E+00  0.0000E+00  0.0000E+00  0.0000E+00
  0.1951E+00  0.9808E+00  0.5025E+00  0.2419E+01 -0.4435E+00  0.2462E+01  0.5025E+00  0.0000E+00  0.0000E+00  0.0000E+00  0.0000E+00  0.0000E+00  0.0000E+00
  0.4714E+00  0.8819E+00  0.1206E+01  0.1934E+01 -0.9589E+00  0.2160E+01  0.1206E+01  0.0000E+00  0.0000E+00  0.0000E+00  0.0000E+00  0.0000E+00  0.0000E+00
  0.6344E+00  0.7730E+00  0.1611E+01  0.1487E+01 -0.1113E+01  0.1859E+01  0.1611E+01  0.0000E+00  0.0000E+00  0.0000E+00  0.0000E+00  0.0000E+00  0.0000E+00
  0.7730E+00  0.6344E+00  0.1950E+01  0.1023E+01 -0.1096E+01  0.1500E+01  0.1950E+01  0.0000E+00  0.0000E+00  0.0000E+00  0.0000E+00  0.0000E+00  0.0000E+00
  0.8819E+00  0.4714E+00  0.2212E+01  0.6078E+00 -0.9182E+00  0.1102E+01  0.2212E+01  0.0000E+00  0.0000E+00  0.0000E+00  0.0000E+00  0.0000E+00  0.0000E+00
  0.9808E+00  0.1951E+00  0.2447E+01  0.1952E+00 -0.4197E+00  0.4637E+00  0.2446E+01  0.0000E+00  0.0000E+00  0.0000E+00  0.0000E+00  0.0000E+00  0.0000E+00
  0.1100E+01  0.0000E+00  0.2503E+01  0.2052E+00 -0.7088E-01  0.2214E+00  0.2505E+01  0.0000E+00  0.0000E+00  0.0000E+00  0.0000E+00  0.0000E+00  0.0000E+00
  0.1200E+01  0.0000E+00  0.2532E+01  0.3610E+00 -0.6297E-01  0.3673E+00  0.2532E+01  0.0000E+00  0.0000E+00  0.0000E+00  0.0000E+00  0.0000E+00  0.0000E+00
  0.1300E+01  0.0000E+00  0.2575E+01  0.4801E+00 -0.5116E-01  0.4832E+00  0.2575E+01  0.0000E+00  0.0000E+00  0.0000E+00  0.0000E+00  0.0000E+00  0.0000E+00
  0.1400E+01  0.0000E+00  0.2627E+01  0.5740E+00 -0.4031E-01  0.5756E+00  0.2627E+01  0.0000E+00  0.0000E+00  0.0000E+00  0.0000E+00  0.0000E+00  0.0000E+00
  0.1500E+01  0.0000E+00  0.2689E+01  0.6486E+00 -0.3217E-01  0.6495E+00  0.2689E+01  0.0000E+00  0.0000E+00  0.0000E+00  0.0000E+00  0.0000E+00  0.0000E+00
  0.1600E+01  0.0000E+00  0.2757E+01  0.7085E+00 -0.2598E-01  0.7090E+00  0.2757E+01  0.0000E+00  0.0000E+00  0.0000E+00  0.0000E+00  0.0000E+00  0.0000E+00
  0.1700E+01  0.0000E+00  0.2830E+01  0.7571E+00 -0.2119E-01  0.7574E+00  0.2830E+01  0.0000E+00  0.0000E+00  0.0000E+00  0.0000E+00  0.0000E+00  0.0000E+00
  0.1800E+01  0.0000E+00  0.2908E+01  0.7969E+00 -0.1741E-01  0.7971E+00  0.2908E+01  0.0000E+00  0.0000E+00  0.0000E+00  0.0000E+00  0.0000E+00  0.0000E+00
  0.1900E+01  0.0000E+00  0.2989E+01  0.8297E+00 -0.1440E-01  0.8298E+00  0.2989E+01  0.0000E+00  0.0000E+00  0.0000E+00  0.0000E+00  0.0000E+00  0.0000E+00
  0.2000E+01  0.0000E+00  0.3074E+01  0.8569E+00 -0.1198E-01  0.8570E+00  0.3074E+01  0.0000E+00  0.0000E+00  0.0000E+00  0.0000E+00  0.0000E+00  0.0000E+00
  0.2100E+01  0.0000E+00  0.3160E+01  0.8797E+00 -0.1002E-01  0.8797E+00  0.3160E+01  0.0000E+00  0.0000E+00  0.0000E+00  0.0000E+00  0.0000E+00  0.0000E+00
  0.2200E+01  0.0000E+00  0.3249E+01  0.8987E+00 -0.8416E-02  0.8987E+00  0.3249E+01  0.0000E+00  0.0000E+00  0.0000E+00  0.0000E+00  0.0000E+00  0.0000E+00
  0.2300E+01  0.0000E+00  0.3340E+01  0.9147E+00 -0.7104E-02  0.9148E+00  0.3340E+01  0.0000E+00  0.0000E+00  0.0000E+00  0.0000E+00  0.0000E+00  0.0000E+00
  0.2400E+01  0.0000E+00  0.3432E+01  0.9283E+00 -0.6026E-02  0.9283E+00  0.3432E+01  0.0000E+00  0.0000E+00  0.0000E+00  0.0000E+00  0.0000E+00  0.0000E+00
  0.2500E+01  0.0000E+00  0.3526E+01  0.9399E+00 -0.5138E-02  0.9399E+00  0.3526E+01  0.0000E+00  0.0000E+00  0.0000E+00  0.0000E+00  0.0000E+00  0.0000E+00
  0.2600E+01  0.0000E+00  0.3620E+01  0.9497E+00 -0.4406E-02  0.9497E+00  0.3620E+01  0.0000E+00  0.0000E+00  0.0000E+00  0.0000E+00  0.0000E+00  0.0000E+00
  0.2700E+01  0.0000E+00  0.3716E+01  0.9582E+00 -0.3805E-02  0.9582E+00  0.3716E+01  0.0000E+00  0.0000E+00  0.0000E+00  0.0000E+00  0.0000E+00  0.0000E+00
  0.2800E+01  0.0000E+00  0.3812E+01  0.9656E+00 -0.3313E-02  0.9656E+00  0.3812E+01  0.0000E+00  0.0000E+00  0.0000E+00  0.0000E+00  0.0000E+00  0.0000E+00
  0.2900E+01  0.0000E+00  0.3909E+01  0.9720E+00 -0.2914E-02  0.9720E+00  0.3909E+01  0.0000E+00  0.0000E+00  0.0000E+00  0.0000E+00  0.0000E+00  0.0000E+00
  0.3000E+01  0.0000E+00  0.4006E+01  0.9777E+00 -0.2598E-02  0.9777E+00  0.4006E+01  0.0000E+00  0.0000E+00  0.0000E+00  0.0000E+00  0.0000E+00  0.0000E+00
  0.3100E+01  0.0000E+00  0.4104E+01  0.9828E+00 -0.2359E-02  0.9829E+00  0.4104E+01  0.0000E+00  0.0000E+00  0.0000E+00  0.0000E+00  0.0000E+00  0.0000E+00
  0.3200E+01  0.0000E+00  0.4203E+01  0.9875E+00 -0.2155E-02  0.9875E+00  0.4203E+01  0.0000E+00  0.0000E+00  0.0000E+00  0.0000E+00  0.0000E+00  0.0000E+00
  0.3300E+01  0.0000E+00  0.4302E+01  0.9919E+00 -0.2153E-02  0.9919E+00  0.4302E+01  0.0000E+00  0.0000E+00  0.0000E+00  0.0000E+00  0.0000E+00  0.0000E+00
  0.3400E+01  0.0000E+00  0.4401E+01  0.9962E+00 -0.2791E-02  0.9962E+00  0.4411E+01  0.0000E+00  0.0000E+00  0.0000E+00  0.0000E+00  0.0000E+00  0.0000E+00
  0.3500E+01  0.1000E+00  0.4501E+01  0.9980E+00 -0.3746E-02  0.9980E+00  0.4459E+01  0.0000E+00  0.0000E+00  0.0000E+00  0.0000E+00  0.0000E+00  0.0000E+00
  0.3500E+01  0.2000E+00  0.4500E+01  0.9980E+00 -0.7814E-02  0.9981E+00  0.4462E+01  0.0000E+00  0.0000E+00  0.0000E+00  0.0000E+00  0.0000E+00  0.0000E+00
  0.3500E+01  0.3000E+00  0.4499E+01  0.9983E+00 -0.1158E-01  0.9984E+00  0.4461E+01  0.0000E+00  0.0000E+00  0.0000E+00  0.0000E+00  0.0000E+00  0.0000E+00
  0.3500E+01  0.4000E+00  0.4498E+01  0.9985E+00 -0.1496E-01  0.9986E+00  0.4459E+01  0.0000E+00  0.0000E+00  0.0000E+00  0.0000E+00  0.0000E+00  0.0000E+00
  0.3500E+01  0.5000E+00  0.4496E+01  0.9987E+00 -0.1795E-01  0.9988E+00  0.4458E+01  0.0000E+00  0.0000E+00  0.0000E+00  0.0000E+00  0.0000E+00  0.0000E+00
  0.3500E+01  0.6000E+00  0.4494E+01  0.9989E+00 -0.2051E-01  0.9991E+00  0.4456E+01  0.0000E+00  0.0000E+00  0.0000E+00  0.0000E+00  0.0000E+00  0.0000E+00
  0.3500E+01  0.7000E+00  0.4492E+01  0.9992E+00 -0.2254E-01  0.9994E+00  0.4453E+01  0.0000E+00  0.0000E+00  0.0000E+00  0.0000E+00  0.0000E+00  0.0000E+00
  0.3500E+01  0.8000E+00  0.4490E+01  0.9994E+00 -0.2400E-01  0.9997E+00  0.4451E+01  0.0000E+00  0.0000E+00  0.0000E+00  0.0000E+00  0.0000E+00  0.0000E+00
  0.3500E+01  0.9000E+00  0.4487E+01  0.9997E+00 -0.2487E-01  0.1000E+01  0.4449E+01  0.0000E+00  0.0000E+00  0.0000E+00  0.0000E+00  0.0000E+00  0.0000E+00
  0.3500E+01  0.1000E+01  0.4485E+01  0.1000E+01 -0.2511E-01  0.1000E+01  0.4446E+01  0.0000E+00  0.0000E+00  0.0000E+00  0.0000E+00  0.0000E+00  0.0000E+00
  0.3500E+01  0.1100E+01  0.4482E+01  0.1000E+01 -0.2474E-01  0.1001E+01  0.4444E+01  0.0000E+00  0.0000E+00  0.0000E+00  0.0000E+00  0.0000E+00  0.0000E+00
  0.3500E+01  0.1200E+01  0.4480E+01  0.1001E+01 -0.2376E-01  0.1001E+01  0.4441E+01  0.0000E+00  0.0000E+00  0.0000E+00  0.0000E+00  0.0000E+00  0.0000E+00
  0.3500E+01  0.1300E+01  0.4477E+01  0.1001E+01 -0.2221E-01  0.1001E+01  0.4439E+01  0.0000E+00  0.0000E+00  0.0000E+00  0.0000E+00  0.0000E+00  0.0000E+00
  0.3500E+01  0.1400E+01  0.4475E+01  0.1001E+01 -0.2012E-01  0.1001E+01  0.4437E+01  0.0000E+00  0.0000E+00  0.0000E+00  0.0000E+00  0.0000E+00  0.0000E+00
  0.3500E+01  0.1500E+01  0.4473E+01  0.1001E+01 -0.1756E-01  0.1001E+01  0.4435E+01  0.0000E+00  0.0000E+00  0.0000E+00  0.0000E+00  0.0000E+00  0.0000E+00
  0.3500E+01  0.1600E+01  0.4472E+01  0.1002E+01 -0.1456E-01  0.1002E+01  0.4433E+01  0.0000E+00  0.0000E+00  0.0000E+00  0.0000E+00  0.0000E+00  0.0000E+00
  0.3500E+01  0.1700E+01  0.4471E+01  0.1002E+01 -0.1121E-01  0.1002E+01  0.4432E+01  0.0000E+00  0.0000E+00  0.0000E+00  0.0000E+00  0.0000E+00  0.0000E+00
  0.3500E+01  0.1800E+01  0.4470E+01  0.1002E+01 -0.7631E-02  0.1002E+01  0.4431E+01  0.0000E+00  0.0000E+00  0.0000E+00  0.0000E+00  0.0000E+00  0.0000E+00
  0.3500E+01  0.1900E+01  0.4469E+01  0.1003E+01 -0.3708E-02  0.1003E+01  0.4413E+01  0.0000E+00  0.0000E+00  0.0000E+00  0.0000E+00  0.0000E+00  0.0000E+00
  0.3400E+01  0.2000E+01  0.4369E+01  0.1004E+01 -0.1990E-02  0.1004E+01  0.4380E+01  0.0000E+00  0.0000E+00  0.0000E+00  0.0000E+00  0.0000E+00  0.0000E+00
  0.3300E+01  0.2000E+01  0.4268E+01  0.1008E+01 -0.2090E-02  0.1008E+01  0.4268E+01  0.0000E+00  0.0000E+00  0.0000E+00  0.0000E+00  0.0000E+00  0.0000E+00
  0.3200E+01  0.2000E+01  0.4167E+01  0.1012E+01 -0.2081E-02  0.1012E+01  0.4167E+01  0.0000E+00  0.0000E+00  0.0000E+00  0.0000E+00  0.0000E+00  0.0000E+00
  0.3100E+01  0.2000E+01  0.4066E+01  0.1017E+01 -0.2231E-02  0.1017E+01  0.4066E+01  0.0000E+00  0.0000E+00  0.0000E+00  0.0000E+00  0.0000E+00  0.0000E+00
  0.3000E+01  0.2000E+01  0.3964E+01  0.1021E+01 -0.2441E-02  0.1021E+01  0.3964E+01  0.0000E+00  0.0000E+00  0.0000E+00  0.0000E+00  0.0000E+00  0.0000E+00
  0.2900E+01  0.2000E+01  0.3861E+01  0.1027E+01 -0.2708E-02  0.1027E+01  0.3861E+01  0.0000E+00  0.0000E+00  0.0000E+00  0.0000E+00  0.0000E+00  0.0000E+00
  0.2800E+01  0.2000E+01  0.3758E+01  0.1033E+01 -0.3035E-02  0.1033E+01  0.3758E+01  0.0000E+00  0.0000E+00  0.0000E+00  0.0000E+00  0.0000E+00  0.0000E+00
  0.2700E+01  0.2000E+01  0.3655E+01  0.1039E+01 -0.3426E-02  0.1039E+01  0.3655E+01  0.0000E+00  0.0000E+00  0.0000E+00  0.0000E+00  0.0000E+00  0.0000E+00
  0.2600E+01  0.2000E+01  0.3551E+01  0.1047E+01 -0.3889E-02  0.1047E+01  0.3551E+01  0.0000E+00  0.0000E+00  0.0000E+00  0.0000E+00  0.0000E+00  0.0000E+00
  0.2500E+01  0.2000E+01  0.3445E+01  0.1056E+01 -0.4430E-02  0.1056E+01  0.3445E+01  0.0000E+00  0.0000E+00  0.0000E+00  0.0000E+00  0.0000E+00  0.0000E+00
  0.2400E+01  0.2000E+01  0.3339E+01  0.1065E+01 -0.5057E-02  0.1065E+01  0.3339E+01  0.0000E+00  0.0000E+00  0.0000E+00  0.0000E+00  0.0000E+00  0.0000E+00
  0.2300E+01  0.2000E+01  0.3232E+01  0.1077E+01 -0.5778E-02  0.1077E+01  0.3232E+01  0.0000E+00  0.0000E+00  0.0000E+00  0.0000E+00  0.0000E+00  0.0000E+00
  0.2200E+01  0.2000E+01  0.3124E+01  0.1089E+01 -0.6599E-02  0.1089E+01  0.3124E+01  0.0000E+00  0.0000E+00  0.0000E+00  0.0000E+00  0.0000E+00  0.0000E+00
  0.2100E+01  0.2000E+01  0.3014E+01  0.1104E+01 -0.7528E-02  0.1104E+01  0.3014E+01  0.0000E+00  0.0000E+00  0.0000E+00  0.0000E+00  0.0000E+00  0.0000E+00
  0.2000E+01  0.2000E+01  0.2903E+01  0.1121E+01 -0.8567E-02  0.1121E+01  0.2903E+01  0.0000E+00  0.0000E+00  0.0000E+00  0.0000E+00  0.0000E+00  0.0000E+00
  0.1900E+01  0.2000E+01  0.2790E+01  0.1140E+01 -0.9719E-02  0.1140E+01  0.2790E+01  0.0000E+00  0.0000E+00  0.0000E+00  0.0000E+00  0.0000E+00  0.0000E+00
  0.1800E+01  0.2000E+01  0.2675E+01  0.1161E+01 -0.1098E-01  0.1161E+01  0.2675E+01  0.0000E+00  0.0000E+00  0.0000E+00  0.0000E+00  0.0000E+00  0.0000E+00
  0.1700E+01  0.2000E+01  0.2558E+01  0.1185E+01 -0.1235E-01  0.1185E+01  0.2558E+01  0.0000E+00  0.0000E+00  0.0000E+00  0.0000E+00  0.0000E+00  0.0000E+00
  0.1600E+01  0.2000E+01  0.2438E+01  0.1213E+01 -0.1380E-01  0.1213E+01  0.2438E+01  0.0000E+00  0.0000E+00  0.0000E+00  0.0000E+00  0.0000E+00  0.0000E+00
  0.1500E+01  0.2000E+01  0.2315E+01  0.1243E+01 -0.1532E-01  0.1243E+01  0.2315E+01  0.0000E+00  0.0000E+00  0.0000E+00  0.0000E+00  0.0000E+00  0.0000E+00
  0.1400E+01  0.2000E+01  0.2189E+01  0.1276E+01 -0.1686E-01  0.1276E+01  0.2189E+01  0.0000E+00  0.0000E+00  0.0000E+00  0.0000E+00  0.0000E+00  0.0000E+00
  0.1300E+01  0.2000E+01  0.2060E+01  0.1313E+01 -0.1837E-01  0.1313E+01  0.2060E+01  0.0000E+00  0.0000E+00  0.0000E+00  0.0000E+00  0.0000E+00  0.0000E+00
  0.1200E+01  0.2000E+01  0.1927E+01  0.1353E+01 -0.1978E-01  0.1353E+01  0.1927E+01  0.0000E+00  0.0000E+00  0.0000E+00  0.0000E+00  0.0000E+00  0.0000E+00
  0.1100E+01  0.2000E+01  0.1789E+01  0.1395E+01 -0.2102E-01  0.1395E+01  0.1789E+01  0.0000E+00  0.0000E+00  0.0000E+00  0.0000E+00  0.0000E+00  0.0000E+00
  0.1000E+01  0.2000E+01  0.1648E+01  0.1440E+01 -0.2198E-01  0.1440E+01  0.1648E+01  0.0000E+00  0.0000E+00  0.0000E+00  0.0000E+00  0.0000E+00  0.0000E+00
  0.9000E+00  0.2000E+01  0.1501E+01  0.1486E+01 -0.2256E-01  0.1486E+01  0.1501E+01  0.0000E+00  0.0000E+00  0.0000E+00  0.0000E+00  0.0000E+00  0.0000E+00
  0.8000E+00  0.2000E+01  0.1350E+01  0.1533E+01 -0.2265E-01  0.1534E+01  0.1350E+01  0.0000E+00  0.0000E+00  0.0000E+00  0.0000E+00  0.0000E+00  0.0000E+00
  0.7000E+00  0.2000E+01  0.1195E+01  0.1580E+01 -0.2216E-01  0.1580E+01  0.1195E+01  0.0000E+00  0.0000E+00  0.0000E+00  0.0000E+00  0.0000E+00  0.0000E+00
  0.6000E+00  0.2000E+01  0.1034E+01  0.1625E+01 -0.2098E-01  0.1625E+01  0.1034E+01  0.0000E+00  0.0000E+00  0.0000E+00  0.0000E+00  0.0000E+00  0.0000E+00
  0.5000E+00  0.2000E+01  0.8696E+00  0.1667E+01 -0.1907E-01  0.1667E+01  0.8696E+00  0.0000E+00  0.0000E+00  0.0000E+00  0.0000E+00  0.0000E+00  0.0000E+00
  0.4000E+00  0.2000E+01  0.7010E+00  0.1704E+01 -0.1644E-01  0.1704E+01  0.7010E+00  0.0000E+00  0.0000E+00  0.0000E+00  0.0000E+00  0.0000E+00  0.0000E+00
  0.3000E+00  0.2000E+01  0.5290E+00  0.1735E+01 -0.1329E-01  0.1735E+01  0.5290E+00  0.0000E+00  0.0000E+00  0.0000E+00  0.0000E+00  0.0000E+00  0.0000E+00
  0.2000E+00  0.2000E+01  0.3542E+00  0.1759E+01 -0.9018E-02  0.1759E+01  0.3466E+00  0.0000E+00  0.0000E+00  0.0000E+00  0.0000E+00  0.0000E+00  0.0000E+00
  0.1000E+00  0.2000E+01  0.1776E+00  0.1774E+01 -0.3701E-02  0.1774E+01  0.1502E+00  0.0000E+00  0.0000E+00  0.0000E+00  0.0000E+00  0.0000E+00  0.0000E+00
  0.0000E+00  0.1900E+01  0.0000E+00  0.1781E+01 -0.3744E-02  0.1781E+01  0.9109E-01  0.0000E+00  0.0000E+00  0.0000E+00  0.0000E+00  0.0000E+00  0.0000E+00
  0.0000E+00  0.1800E+01  0.0000E+00  0.1798E+01 -0.6168E-02  0.1798E+01  0.6514E-01  0.0000E+00  0.0000E+00  0.0000E+00  0.0000E+00  0.0000E+00  0.0000E+00
  0.0000E+00  0.1700E+01  0.0000E+00  0.1823E+01 -0.8935E-02  0.1824E+01  0.7019E-01  0.0000E+00  0.0000E+00  0.0000E+00  0.0000E+00  0.0000E+00  0.0000E+00
  0.0000E+00  0.1600E+01  0.0000E+00  0.1861E+01 -0.1293E-01  0.1862E+01  0.7162E-01  0.0000E+00  0.0000E+00  0.0000E+00  0.0000E+00  0.0000E+00  0.0000E+00
  0.0000E+00  0.1500E+01  0.0000E+00  0.1914E+01 -0.1732E-01  0.1914E+01  0.7363E-01  0.0000E+00  0.0000E+00  0.0000E+00  0.0000E+00  0.0000E+00  0.0000E+00
  0.0000E+00  0.1400E+01  0.0000E+00  0.1984E+01 -0.2314E-01  0.1984E+01  0.7636E-01  0.0000E+00  0.0000E+00  0.0000E+00  0.0000E+00  0.0000E+00  0.0000E+00
  0.0000E+00  0.1300E+01  0.0000E+00  0.2077E+01 -0.3078E-01  0.2078E+01  0.7995E-01  0.0000E+00  0.0000E+00  0.0000E+00  0.0000E+00  0.0000E+00  0.0000E+00
  0.0000E+00  0.1200E+01  0.0000E+00  0.2215E+01 -0.4505E-01  0.2217E+01  0.9182E-01  0.0000E+00  0.0000E+00  0.0000E+00  0.0000E+00  0.0000E+00  0.0000E+00
  0.0000E+00  0.1100E+01  0.0000E+00  0.2409E+01 -0.6234E-01  0.2411E+01  0.1066E+00  0.0000E+00  0.0000E+00  0.0000E+00  0.0000E+00  0.0000E+00  0.0000E+00
  0.9802E-01  0.9952E+00  0.2509E+00  0.2454E+01 -0.1772E+00  0.2464E+01  0.2270E+00  0.0000E+00  0.0000E+00  0.0000E+00  0.0000E+00  0.0000E+00  0.0000E+00
  0.2903E+00  0.9569E+00  0.7466E+00  0.2291E+01 -0.6490E+00  0.2383E+01  0.7465E+00  0.0000E+00  0.0000E+00  0.0000E+00  0.0000E+00  0.0000E+00  0.0000E+00
  0.3827E+00  0.9239E+00  0.9818E+00  0.2128E+01 -0.8213E+00  0.2283E+01  0.9817E+00  0.0000E+00  0.0000E+00  0.0000E+00  0.0000E+00  0.0000E+00  0.0000E+00
  0.5556E+00  0.8315E+00  0.1416E+01  0.1717E+01 -0.1057E+01  0.2018E+01  0.1416E+01  0.0000E+00  0.0000E+00  0.0000E+00  0.0000E+00  0.0000E+00  0.0000E+00
  0.7071E+00  0.7071E+00  0.1790E+01  0.1253E+01 -0.1126E+01  0.1686E+01  0.1790E+01  0.0000E+00  0.0000E+00  0.0000E+00  0.0000E+00  0.0000E+00  0.0000E+00
  0.8315E+00  0.5556E+00  0.2091E+01  0.8051E+00 -0.1026E+01  0.1305E+01  0.2091E+01  0.0000E+00  0.0000E+00  0.0000E+00  0.0000E+00  0.0000E+00  0.0000E+00
  0.9239E+00  0.3827E+00  0.2312E+01  0.4370E+00 -0.7775E+00  0.8926E+00  0.2312E+01  0.0000E+00  0.0000E+00  0.0000E+00  0.0000E+00  0.0000E+00  0.0000E+00
  0.9569E+00  0.2903E+00  0.2390E+01  0.2982E+00 -0.6090E+00  0.6788E+00  0.2390E+01  0.0000E+00  0.0000E+00  0.0000E+00  0.0000E+00  0.0000E+00  0.0000E+00
  0.9952E+00  0.9802E-01  0.2481E+01  0.1271E+00 -0.2161E+00  0.2546E+00  0.2480E+01  0.0000E+00  0.0000E+00  0.0000E+00  0.0000E+00  0.0000E+00  0.0000E+00
  0.9797E+00  0.4634E+00  0.2272E+01  0.5536E+00 -0.7813E+00  0.9619E+00  0.2272E+01  0.0000E+00  0.0000E+00  0.0000E+00  0.0000E+00  0.0000E+00  0.0000E+00
  0.3413E+01  0.1050E+01  0.4397E+01  0.1000E+01 -0.2523E-01  0.1001E+01  0.4397E+01  0.0000E+00  0.0000E+00  0.0000E+00  0.0000E+00  0.0000E+00  0.0000E+00
  0.1750E+01  0.8660E-01  0.2867E+01  0.7809E+00 -0.3420E-01  0.7819E+00  0.2867E+01  0.0000E+00  0.0000E+00  0.0000E+00  0.0000E+00  0.0000E+00  0.0000E+00
  0.8500E+00  0.1913E+01  0.1428E+01  0.1510E+01 -0.4100E-01  0.1510E+01  0.1428E+01  0.0000E+00  0.0000E+00  0.0000E+00  0.0000E+00  0.0000E+00  0.0000E+00
  0.1450E+01  0.8660E-01  0.2654E+01  0.6196E+00 -0.6382E-01  0.6240E+00  0.2654E+01  0.0000E+00  0.0000E+00  0.0000E+00  0.0000E+00  0.0000E+00  0.0000E+00
  0.1550E+01  0.8660E-01  0.2720E+01  0.6849E+00 -0.5135E-01  0.6874E+00  0.2720E+01  0.0000E+00  0.0000E+00  0.0000E+00  0.0000E+00  0.0000E+00  0.0000E+00
  0.1650E+01  0.8660E-01  0.2791E+01  0.7377E+00 -0.4173E-01  0.7393E+00  0.2791E+01  0.0000E+00  0.0000E+00  0.0000E+00  0.0000E+00  0.0000E+00  0.0000E+00
  0.1850E+01  0.8660E-01  0.2947E+01  0.8164E+00 -0.2822E-01  0.8170E+00  0.2947E+01  0.0000E+00  0.0000E+00  0.0000E+00  0.0000E+00  0.0000E+00  0.0000E+00
  0.2050E+01  0.8660E-01  0.3116E+01  0.8703E+00 -0.1955E-01  0.8706E+00  0.3116E+01  0.0000E+00  0.0000E+00  0.0000E+00  0.0000E+00  0.0000E+00  0.0000E+00
  0.2250E+01  0.8660E-01  0.3294E+01  0.9081E+00 -0.1381E-01  0.9082E+00  0.3294E+01  0.0000E+00  0.0000E+00  0.0000E+00  0.0000E+00  0.0000E+00  0.0000E+00
  0.3413E+01  0.1450E+01  0.4388E+01  0.1002E+01 -0.1907E-01  0.1002E+01  0.4388E+01  0.0000E+00  0.0000E+00  0.0000E+00  0.0000E+00  0.0000E+00  0.0000E+00
  0.3413E+01  0.1350E+01  0.4390E+01  0.1002E+01 -0.2142E-01  0.1002E+01  0.4390E+01  0.0000E+00  0.0000E+00  0.0000E+00  0.0000E+00  0.0000E+00  0.0000E+00
  0.2550E+01  0.8660E-01  0.3572E+01  0.9455E+00 -0.8505E-02  0.9456E+00  0.3572E+01  0.0000E+00  0.0000E+00  0.0000E+00  0.0000E+00  0.0000E+00  0.0000E+00
  0.2650E+01  0.8660E-01  0.3667E+01  0.9546E+00 -0.7319E-02  0.9546E+00  0.3667E+01  0.0000E+00  0.0000E+00  0.0000E+00  0.0000E+00  0.0000E+00  0.0000E+00
  0.2750E+01  0.8660E-01  0.3763E+01  0.9624E+00 -0.6346E-02  0.9624E+00  0.3763E+01  0.0000E+00  0.0000E+00  0.0000E+00  0.0000E+00  0.0000E+00  0.0000E+00
  0.2850E+01  0.8660E-01  0.3860E+01  0.9692E+00 -0.5552E-02  0.9692E+00  0.3860E+01  0.0000E+00  0.0000E+00  0.0000E+00  0.0000E+00  0.0000E+00  0.0000E+00
  0.2950E+01  0.8660E-01  0.3957E+01  0.9752E+00 -0.4914E-02  0.9752E+00  0.3957E+01  0.0000E+00  0.0000E+00  0.0000E+00  0.0000E+00  0.0000E+00  0.0000E+00
  0.3413E+01  0.3500E+00  0.4412E+01  0.9971E+00 -0.1346E-01  0.9972E+00  0.4412E+01  0.0000E+00  0.0000E+00  0.0000E+00  0.0000E+00  0.0000E+00  0.0000E+00
  0.3150E+01  0.8660E-01  0.4153E+01  0.9854E+00 -0.4066E-02  0.9854E+00  0.4153E+01  0.0000E+00  0.0000E+00  0.0000E+00  0.0000E+00  0.0000E+00  0.0000E+00
  0.3250E+01  0.8660E-01  0.4252E+01  0.9898E+00 -0.3806E-02  0.9898E+00  0.4255E+01  0.0000E+00  0.0000E+00  0.0000E+00  0.0000E+00  0.0000E+00  0.0000E+00
  0.3413E+01  0.1500E+00  0.4414E+01  0.9966E+00 -0.5524E-02  0.9966E+00  0.4415E+01  0.0000E+00  0.0000E+00  0.0000E+00  0.0000E+00  0.0000E+00  0.0000E+00
  0.3413E+01  0.2500E+00  0.4413E+01  0.9968E+00 -0.9884E-02  0.9968E+00  0.4413E+01  0.0000E+00  0.0000E+00  0.0000E+00  0.0000E+00  0.0000E+00  0.0000E+00
  0.3050E+01  0.8660E-01  0.4055E+01  0.9805E+00 -0.4414E-02  0.9805E+00  0.4055E+01  0.0000E+00  0.0000E+00  0.0000E+00  0.0000E+00  0.0000E+00  0.0000E+00
  0.3413E+01  0.5500E+00  0.4409E+01  0.9978E+00 -0.1948E-01  0.9980E+00  0.4409E+01  0.0000E+00  0.0000E+00  0.0000E+00  0.0000E+00  0.0000E+00  0.0000E+00
  0.3413E+01  0.6500E+00  0.4407E+01  0.9982E+00 -0.2180E-01  0.9985E+00  0.4407E+01  0.0000E+00  0.0000E+00  0.0000E+00  0.0000E+00  0.0000E+00  0.0000E+00
  0.3413E+01  0.7500E+00  0.4404E+01  0.9987E+00 -0.2357E-01  0.9990E+00  0.4404E+01  0.0000E+00  0.0000E+00  0.0000E+00  0.0000E+00  0.0000E+00  0.0000E+00
  0.3413E+01  0.8500E+00  0.4402E+01  0.9993E+00 -0.2474E-01  0.9996E+00  0.4402E+01  0.0000E+00  0.0000E+00  0.0000E+00  0.0000E+00  0.0000E+00  0.0000E+00
  0.3413E+01  0.9500E+00  0.4399E+01  0.9998E+00 -0.2530E-01  0.1000E+01  0.4399E+01  0.0000E+00  0.0000E+00  0.0000E+00  0.0000E+00  0.0000E+00  0.0000E+00
  0.3413E+01  0.1150E+01  0.4394E+01  0.1001E+01 -0.2455E-01  0.1001E+01  0.4394E+01  0.0000E+00  0.0000E+00  0.0000E+00  0.0000E+00  0.0000E+00  0.0000E+00
  0.3413E+01  0.1250E+01  0.4392E+01  0.1001E+01 -0.2327E-01  0.1002E+01  0.4392E+01  0.0000E+00  0.0000E+00  0.0000E+00  0.0000E+00  0.0000E+00  0.0000E+00
  0.3150E+01  0.1913E+01  0.4117E+01  0.1014E+01 -0.3844E-02  0.1014E+01  0.4117E+01  0.0000E+00  0.0000E+00  0.0000E+00  0.0000E+00  0.0000E+00  0.0000E+00
  0.3413E+01  0.1650E+01  0.4384E+01  0.1003E+01 -0.1305E-01  0.1003E+01  0.4384E+01  0.0000E+00  0.0000E+00  0.0000E+00  0.0000E+00  0.0000E+00  0.0000E+00
  0.3250E+01  0.1913E+01  0.4218E+01  0.1010E+01 -0.3599E-02  0.1010E+01  0.4218E+01  0.0000E+00  0.0000E+00  0.0000E+00  0.0000E+00  0.0000E+00  0.0000E+00
  0.3413E+01  0.1750E+01  0.4383E+01  0.1003E+01 -0.9594E-02  0.1003E+01  0.4380E+01  0.0000E+00  0.0000E+00  0.0000E+00  0.0000E+00  0.0000E+00  0.0000E+00
  0.3350E+01  0.1913E+01  0.4319E+01  0.1005E+01 -0.3437E-02  0.1005E+01  0.4326E+01  0.0000E+00  0.0000E+00  0.0000E+00  0.0000E+00  0.0000E+00  0.0000E+00
  0.2450E+01  0.8660E-01  0.3478E+01  0.9350E+00 -0.9944E-02  0.9351E+00  0.3478E+01  0.0000E+00  0.0000E+00  0.0000E+00  0.0000E+00  0.0000E+00  0.0000E+00
  0.2450E+01  0.1913E+01  0.3393E+01  0.1060E+01 -0.8485E-02  0.1060E+01  0.3393E+01  0.0000E+00  0.0000E+00  0.0000E+00  0.0000E+00  0.0000E+00  0.0000E+00
  0.2350E+01  0.8660E-01  0.3385E+01  0.9226E+00 -0.1169E-01  0.9227E+00  0.3385E+01  0.0000E+00  0.0000E+00  0.0000E+00  0.0000E+00  0.0000E+00  0.0000E+00
  0.2350E+01  0.1913E+01  0.3286E+01  0.1070E+01 -0.9694E-02  0.1070E+01  0.3286E+01  0.0000E+00  0.0000E+00  0.0000E+00  0.0000E+00  0.0000E+00  0.0000E+00
  0.2250E+01  0.1913E+01  0.3179E+01  0.1082E+01 -0.1108E-01  0.1082E+01  0.3179E+01  0.0000E+00  0.0000E+00  0.0000E+00  0.0000E+00  0.0000E+00  0.0000E+00
  0.2150E+01  0.8660E-01  0.3204E+01  0.8908E+00 -0.1639E-01  0.8910E+00  0.3204E+01  0.0000E+00  0.0000E+00  0.0000E+00  0.0000E+00  0.0000E+00  0.0000E+00
  0.2150E+01  0.1913E+01  0.3070E+01  0.1096E+01 -0.1265E-01  0.1096E+01  0.3070E+01  0.0000E+00  0.0000E+00  0.0000E+00  0.0000E+00  0.0000E+00  0.0000E+00
  0.2050E+01  0.1913E+01  0.2960E+01  0.1111E+01 -0.1442E-01  0.1111E+01  0.2960E+01  0.0000E+00  0.0000E+00  0.0000E+00  0.0000E+00  0.0000E+00  0.0000E+00
  0.1950E+01  0.8660E-01  0.3030E+01  0.8458E+00 -0.2343E-01  0.8463E+00  0.3030E+01  0.0000E+00  0.0000E+00  0.0000E+00  0.0000E+00  0.0000E+00  0.0000E+00
  0.1950E+01  0.1913E+01  0.2848E+01  0.1129E+01 -0.1639E-01  0.1129E+01  0.2848E+01  0.0000E+00  0.0000E+00  0.0000E+00  0.0000E+00  0.0000E+00  0.0000E+00
  0.1850E+01  0.1913E+01  0.2734E+01  0.1149E+01 -0.1856E-01  0.1149E+01  0.2734E+01  0.0000E+00  0.0000E+00  0.0000E+00  0.0000E+00  0.0000E+00  0.0000E+00
  0.1750E+01  0.1913E+01  0.2618E+01  0.1172E+01 -0.2094E-01  0.1172E+01  0.2618E+01  0.0000E+00  0.0000E+00  0.0000E+00  0.0000E+00  0.0000E+00  0.0000E+00
  0.9296E+00  0.5572E+00  0.2162E+01  0.7245E+00 -0.8953E+00  0.1155E+01  0.2161E+01  0.0000E+00  0.0000E+00  0.0000E+00  0.0000E+00  0.0000E+00  0.0000E+00
  0.1650E+01  0.1913E+01  0.2499E+01  0.1197E+01 -0.2348E-01  0.1198E+01  0.2499E+01  0.0000E+00  0.0000E+00  0.0000E+00  0.0000E+00  0.0000E+00  0.0000E+00
  0.1550E+01  0.1913E+01  0.2378E+01  0.1226E+01 -0.2617E-01  0.1226E+01  0.2378E+01  0.0000E+00  0.0000E+00  0.0000E+00  0.0000E+00  0.0000E+00  0.0000E+00
  0.8705E+00  0.6456E+00  0.2030E+01  0.9170E+00 -0.9768E+00  0.1343E+01  0.2029E+01  0.0000E+00  0.0000E+00  0.0000E+00  0.0000E+00  0.0000E+00  0.0000E+00
  0.1450E+01  0.1913E+01  0.2254E+01  0.1258E+01 -0.2895E-01  0.1258E+01  0.2254E+01  0.0000E+00  0.0000E+00  0.0000E+00  0.0000E+00  0.0000E+00  0.0000E+00
  0.1350E+01  0.1913E+01  0.2126E+01  0.1293E+01 -0.3173E-01  0.1293E+01  0.2126E+01  0.0000E+00  0.0000E+00  0.0000E+00  0.0000E+00  0.0000E+00  0.0000E+00
  0.1250E+01  0.1913E+01  0.1995E+01  0.1331E+01 -0.3441E-01  0.1332E+01  0.1995E+01  0.0000E+00  0.0000E+00  0.0000E+00  0.0000E+00  0.0000E+00  0.0000E+00
  0.7278E+00  0.8030E+00  0.1709E+01  0.1340E+01 -0.1029E+01  0.1693E+01  0.1708E+01  0.0000E+00  0.0000E+00  0.0000E+00  0.0000E+00  0.0000E+00  0.0000E+00
  0.1150E+01  0.1913E+01  0.1860E+01  0.1372E+01 -0.3684E-01  0.1373E+01  0.1860E+01  0.0000E+00  0.0000E+00  0.0000E+00  0.0000E+00  0.0000E+00  0.0000E+00
  0.1050E+01  0.1913E+01  0.1721E+01  0.1416E+01 -0.3888E-01  0.1417E+01  0.1721E+01  0.0000E+00  0.0000E+00  0.0000E+00  0.0000E+00  0.0000E+00  0.0000E+00
  0.9500E+00  0.1913E+01  0.1577E+01  0.1462E+01 -0.4033E-01  0.1463E+01  0.1577E+01  0.0000E+00  0.0000E+00  0.0000E+00  0.0000E+00  0.0000E+00  0.0000E+00
  0.5572E+00  0.9296E+00  0.1318E+01  0.1763E+01 -0.9253E+00  0.1993E+01  0.1317E+01  0.0000E+00  0.0000E+00  0.0000E+00  0.0000E+00  0.0000E+00  0.0000E+00
  0.7500E+00  0.1913E+01  0.1275E+01  0.1557E+01 -0.4070E-01  0.1558E+01  0.1275E+01  0.0000E+00  0.0000E+00  0.0000E+00  0.0000E+00  0.0000E+00  0.0000E+00
  0.6500E+00  0.1913E+01  0.1117E+01  0.1604E+01 -0.3924E-01  0.1605E+01  0.1117E+01  0.0000E+00  0.0000E+00  0.0000E+00  0.0000E+00  0.0000E+00  0.0000E+00
  0.5500E+00  0.1913E+01  0.9540E+00  0.1648E+01 -0.3649E-01  0.1649E+01  0.9540E+00  0.0000E+00  0.0000E+00  0.0000E+00  0.0000E+00  0.0000E+00  0.0000E+00
  0.8660E-01  0.1650E+01  0.1593E+00  0.1836E+01 -0.3313E-01  0.1836E+01  0.1592E+00  0.0000E+00  0.0000E+00  0.0000E+00  0.0000E+00  0.0000E+00  0.0000E+00
  0.8660E-01  0.1750E+01  0.1566E+00  0.1803E+01 -0.2290E-01  0.1803E+01  0.1595E+00  0.0000E+00  0.0000E+00  0.0000E+00  0.0000E+00  0.0000E+00  0.0000E+00
  0.2500E+00  0.1913E+01  0.4428E+00  0.1752E+01 -0.2064E-01  0.1752E+01  0.4388E+00  0.0000E+00  0.0000E+00  0.0000E+00  0.0000E+00  0.0000E+00  0.0000E+00
  0.1306E+00  0.1901E+01  0.2324E+00  0.1773E+01 -0.1203E-01  0.1773E+01  0.2405E+00  0.0000E+00  0.0000E+00  0.0000E+00  0.0000E+00  0.0000E+00  0.0000E+00
  0.3500E+00  0.1913E+01  0.6165E+00  0.1723E+01 -0.2694E-01  0.1723E+01  0.6165E+00  0.0000E+00  0.0000E+00  0.0000E+00  0.0000E+00  0.0000E+00  0.0000E+00
  0.4500E+00  0.1913E+01  0.7872E+00  0.1688E+01 -0.3237E-01  0.1689E+01  0.7872E+00  0.0000E+00  0.0000E+00  0.0000E+00  0.0000E+00  0.0000E+00  0.0000E+00
  0.8660E-01  0.1450E+01  0.1683E+00  0.1939E+01 -0.6001E-01  0.1940E+01  0.1682E+00  0.0000E+00  0.0000E+00  0.0000E+00  0.0000E+00  0.0000E+00  0.0000E+00
  0.8660E-01  0.1350E+01  0.1753E+00  0.2017E+01 -0.7966E-01  0.2019E+01  0.1751E+00  0.0000E+00  0.0000E+00  0.0000E+00  0.0000E+00  0.0000E+00  0.0000E+00
  0.2633E+00  0.1051E+01  0.6283E+00  0.2248E+01 -0.5039E+00  0.2306E+01  0.6320E+00  0.0000E+00  0.0000E+00  0.0000E+00  0.0000E+00  0.0000E+00  0.0000E+00
  0.8660E-01  0.1250E+01  0.1845E+00  0.2124E+01 -0.1117E+00  0.2128E+01  0.1908E+00  0.0000E+00  0.0000E+00  0.0000E+00  0.0000E+00  0.0000E+00  0.0000E+00
  0.9914E-01  0.1128E+01  0.2287E+00  0.2277E+01 -0.1562E+00  0.2283E+01  0.2116E+00  0.0000E+00  0.0000E+00  0.0000E+00  0.0000E+00  0.0000E+00  0.0000E+00
  0.1590E+00  0.1072E+01  0.3802E+00  0.2321E+01 -0.3199E+00  0.2345E+01  0.4112E+00  0.0000E+00  0.0000E+00  0.0000E+00  0.0000E+00  0.0000E+00  0.0000E+00
  0.3651E+00  0.1020E+01  0.8691E+00  0.2119E+01 -0.6736E+00  0.2225E+01  0.8687E+00  0.0000E+00  0.0000E+00  0.0000E+00  0.0000E+00  0.0000E+00  0.0000E+00
  0.4634E+00  0.9797E+00  0.1100E+01  0.1954E+01 -0.8165E+00  0.2119E+01  0.1099E+01  0.0000E+00  0.0000E+00  0.0000E+00  0.0000E+00  0.0000E+00  0.0000E+00
  0.6456E+00  0.8705E+00  0.1522E+01  0.1556E+01 -0.9969E+00  0.1850E+01  0.1521E+01  0.0000E+00  0.0000E+00  0.0000E+00  0.0000E+00  0.0000E+00  0.0000E+00
  0.8030E+00  0.7278E+00  0.1879E+01  0.1125E+01 -0.1022E+01  0.1523E+01  0.1878E+01  0.0000E+00  0.0000E+00  0.0000E+00  0.0000E+00  0.0000E+00  0.0000E+00
  0.1020E+01  0.3651E+00  0.2362E+01  0.4100E+00 -0.6392E+00  0.7647E+00  0.2361E+01  0.0000E+00  0.0000E+00  0.0000E+00  0.0000E+00  0.0000E+00  0.0000E+00
  0.1051E+01  0.2633E+00  0.2429E+01  0.3007E+00 -0.4747E+00  0.5693E+00  0.2428E+01  0.0000E+00  0.0000E+00  0.0000E+00  0.0000E+00  0.0000E+00  0.0000E+00
  0.1150E+01  0.8660E-01  0.2511E+01  0.3053E+00 -0.1235E+00  0.3361E+00  0.2510E+01  0.0000E+00  0.0000E+00  0.0000E+00  0.0000E+00  0.0000E+00  0.0000E+00
  0.1350E+01  0.8657E-01  0.2596E+01  0.5382E+00 -0.8038E-01  0.5462E+00  0.2596E+01  0.0000E+00  0.0000E+00  0.0000E+00  0.0000E+00  0.0000E+00  0.0000E+00
  0.3327E+01  0.1300E+01  0.4304E+01  0.1003E+01 -0.2302E-01  0.1003E+01  0.4304E+01  0.0000E+00  0.0000E+00  0.0000E+00  0.0000E+00  0.0000E+00  0.0000E+00
  0.1118E+01  0.3390E+00  0.2419E+01  0.4701E+00 -0.4823E+00  0.6771E+00  0.2417E+01  0.0000E+00  0.0000E+00  0.0000E+00  0.0000E+00  0.0000E+00  0.0000E+00